 argument  1 = LiH.nw
  NWChem w/ OpenMP: maximum threads =    2



============================== echo of input deck ==============================
echo
start Lih

geometry units angstroms
symmetry C1
 Li 0 0   0.000
 H  0 0   1.600
end

basis
 * library sto-3g
end

scf
  singlet
  rhf
  thresh 1e-10
end

tce
  2eorb
  2emet 13
  ccsd
  nroots 2
end

set tce:print_integrals T
set tce:qorb 6
set tce:qela 2
set tce:qelb 2

task tce energy
================================================================================


                                         
                                         


             Northwest Computational Chemistry Package (NWChem) 7.0.1
             --------------------------------------------------------


                    Environmental Molecular Sciences Laboratory
                       Pacific Northwest National Laboratory
                                Richland, WA 99352

                              Copyright (c) 1994-2020
                       Pacific Northwest National Laboratory
                            Battelle Memorial Institute

             NWChem is an open-source computational chemistry package
                        distributed under the terms of the
                      Educational Community License (ECL) 2.0
             A copy of the license is included with this distribution
                              in the LICENSE.TXT file

                                  ACKNOWLEDGMENT
                                  --------------

            This software and its documentation were developed at the
            EMSL at Pacific Northwest National Laboratory, a multiprogram
            national laboratory, operated for the U.S. Department of Energy
            by Battelle under Contract Number DE-AC05-76RL01830. Support
            for this work was provided by the Department of Energy Office
            of Biological and Environmental Research, Office of Basic
            Energy Sciences, and the Office of Advanced Scientific Computing.


           Job information
           ---------------

    hostname        = WE35263ubuntu
    program         = /home/baum612/code/NWChem/nwchem/bin/LINUX64/nwchem
    date            = Wed Aug  3 16:13:19 2022

    compiled        = Wed_Mar_09_12:43:56_2022
    source          = /home/baum612/code/NWChem/nwchem
    nwchem branch   = 7.0.0
    nwchem revision = nwchem_on_git-2570-ge89dbc1474
    ga revision     = 5.8.0
    use scalapack   = F
    input           = LiH.nw
    prefix          = Lih.
    data base       = ./Lih.db
    status          = startup
    nproc           =        1
    time left       =     -1s



           Memory information
           ------------------

    heap     =   13107194 doubles =    100.0 Mbytes
    stack    =   13107199 doubles =    100.0 Mbytes
    global   =   26214400 doubles =    200.0 Mbytes (distinct from heap & stack)
    total    =   52428793 doubles =    400.0 Mbytes
    verify   = yes
    hardfail = no 


           Directory information
           ---------------------

  0 permanent = .
  0 scratch   = .




                                NWChem Input Module
                                -------------------



 Scaling coordinates for geometry "geometry" by  1.889725989
 (inverse scale =  0.529177249)

 Turning off AUTOSYM since
 SYMMETRY directive was detected!


          ------
          auto-z
          ------
  no constraints, skipping    0.0000000000000000     
  no constraints, skipping    0.0000000000000000     


                             Geometry "geometry" -> ""
                             -------------------------

 Output coordinates in angstroms (scale by  1.889725989 to convert to a.u.)

  No.       Tag          Charge          X              Y              Z
 ---- ---------------- ---------- -------------- -------------- --------------
    1 Li                   3.0000     0.00000000     0.00000000    -0.40000000
    2 H                    1.0000     0.00000000     0.00000000     1.20000000

      Atomic Mass 
      ----------- 

      Li                 7.016000
      H                  1.007825


 Effective nuclear repulsion energy (a.u.)       0.9922073419

            Nuclear Dipole moment (a.u.) 
            ----------------------------
        X                 Y               Z
 ---------------- ---------------- ----------------
     0.0000000000     0.0000000000     0.0000000000



                                Z-matrix (autoz)
                                -------- 

 Units are Angstrom for bonds and degrees for angles

      Type          Name      I     J     K     L     M      Value
      ----------- --------  ----- ----- ----- ----- ----- ----------
    1 Stretch                  1     2                       1.60000


            XYZ format geometry
            -------------------
     2
 geometry
 Li                    0.00000000     0.00000000    -0.40000000
 H                     0.00000000     0.00000000     1.20000000

 ==============================================================================
                                internuclear distances
 ------------------------------------------------------------------------------
       center one      |      center two      | atomic units |  angstroms
 ------------------------------------------------------------------------------
    2 H                |   1 Li               |     3.02356  |     1.60000
 ------------------------------------------------------------------------------
                         number of included internuclear distances:          1
 ==============================================================================





 Summary of "ao basis" -> "" (cartesian)
 ------------------------------------------------------------------------------
       Tag                 Description            Shells   Functions and Types
 ---------------- ------------------------------  ------  ---------------------
 *                           sto-3g                   on all atoms 


                      Basis "ao basis" -> "ao basis" (cartesian)
                      -----
  Li (Lithium)
  ------------
            Exponent  Coefficients 
       -------------- ---------------------------------------------------------
  1 S  1.61195750E+01  0.154329
  1 S  2.93620070E+00  0.535328
  1 S  7.94650500E-01  0.444635

  2 S  6.36289700E-01 -0.099967
  2 S  1.47860100E-01  0.399513
  2 S  4.80887000E-02  0.700115

  3 P  6.36289700E-01  0.155916
  3 P  1.47860100E-01  0.607684
  3 P  4.80887000E-02  0.391957

  H (Hydrogen)
  ------------
            Exponent  Coefficients 
       -------------- ---------------------------------------------------------
  1 S  3.42525091E+00  0.154329
  1 S  6.23913730E-01  0.535328
  1 S  1.68855400E-01  0.444635



 Summary of "ao basis" -> "ao basis" (cartesian)
 ------------------------------------------------------------------------------
       Tag                 Description            Shells   Functions and Types
 ---------------- ------------------------------  ------  ---------------------
 Li                          sto-3g                  3        5   2s1p
 H                           sto-3g                  1        1   1s


                                 NWChem SCF Module
                                 -----------------



  ao basis        = "ao basis"
  functions       =     6
  atoms           =     2
  closed shells   =     2
  open shells     =     0
  charge          =   0.00
  wavefunction    = RHF 
  input vectors   = atomic
  output vectors  = ./Lih.movecs
  use symmetry    = F
  symmetry adapt  = F


 Summary of "ao basis" -> "ao basis" (cartesian)
 ------------------------------------------------------------------------------
       Tag                 Description            Shells   Functions and Types
 ---------------- ------------------------------  ------  ---------------------
 Li                          sto-3g                  3        5   2s1p
 H                           sto-3g                  1        1   1s



 Forming initial guess at       0.1s


      Superposition of Atomic Density Guess
      -------------------------------------

 Sum of atomic energies:          -7.78210783

      Non-variational initial energy
      ------------------------------

 Total energy =      -7.569014
 1-e energy   =     -12.150177
 2-e energy   =       3.588956
 HOMO         =      -0.245454
 LUMO         =       0.036547


 Starting SCF solution at       0.1s



 ----------------------------------------------
         Quadratically convergent ROHF

 Convergence threshold     :          1.000E-10
 Maximum no. of iterations :           30
 Final Fock-matrix accuracy:          1.000E-12
 ----------------------------------------------


 #quartets = 5.500D+01 #integrals = 9.700D+01 #direct =  0.0% #cached =100.0%


 Integral file          = ./Lih.aoints.0
 Record size in doubles =    65536    No. of integs per rec  =    43688
 Max. records in memory =        3    Max. records in file   =  1004381
 No. of bits per label  =        8    No. of bits per value  =       64


              iter       energy          gnorm     gmax       time
             ----- ------------------- --------- --------- --------
                 1       -7.8526879782  2.09D-01  2.02D-01      0.0
                 2       -7.8611334500  3.70D-02  3.31D-02      0.0
                 3       -7.8618634797  1.55D-03  1.36D-03      0.0
                 4       -7.8618647736  2.99D-06  2.50D-06      0.1
                 5       -7.8618647736  1.03D-11  8.74D-12      0.1


       Final RHF  results 
       ------------------ 

         Total SCF energy =     -7.861864773565
      One-electron energy =    -12.440078843207
      Two-electron energy =      3.586006727767
 Nuclear repulsion energy =      0.992207341874

        Time for solution =      0.0s


             Final eigenvalues
             -----------------

              1      
    1   -2.3488
    2   -0.2853
    3    0.0782
    4    0.1639
    5    0.1639
    6    0.5477

                       ROHF Final Molecular Orbital Analysis
                       -------------------------------------

 Vector    2  Occ=2.000000D+00  E=-2.852708D-01
              MO Center=  2.0D-16, -1.4D-16,  9.1D-01, r^2= 1.5D+00
   Bfn.  Coefficient  Atom+Function         Bfn.  Coefficient  Atom+Function  
  ----- ------------  ---------------      ----- ------------  ---------------
     6      0.549079  2 H  s                  2      0.455244  1 Li s          
     5      0.346021  1 Li pz                 1     -0.167090  1 Li s          

 Vector    3  Occ=0.000000D+00  E= 7.821656D-02
              MO Center= -1.6D-16,  8.6D-17, -1.3D+00, r^2= 2.6D+00
   Bfn.  Coefficient  Atom+Function         Bfn.  Coefficient  Atom+Function  
  ----- ------------  ---------------      ----- ------------  ---------------
     2      0.799543  1 Li s                  5     -0.612070  1 Li pz         
     1     -0.210043  1 Li s          

 Vector    4  Occ=0.000000D+00  E= 1.639413D-01
              MO Center= -2.8D-18, -4.3D-18, -4.0D-01, r^2= 3.3D+00
   Bfn.  Coefficient  Atom+Function         Bfn.  Coefficient  Atom+Function  
  ----- ------------  ---------------      ----- ------------  ---------------
     4      0.832490  1 Li py                 3      0.554040  1 Li px         

 Vector    5  Occ=0.000000D+00  E= 1.639413D-01
              MO Center= -5.5D-17,  3.7D-17, -4.0D-01, r^2= 3.3D+00
   Bfn.  Coefficient  Atom+Function         Bfn.  Coefficient  Atom+Function  
  ----- ------------  ---------------      ----- ------------  ---------------
     3      0.832490  1 Li px                 4     -0.554040  1 Li py         

 Vector    6  Occ=0.000000D+00  E= 5.477084D-01
              MO Center=  2.4D-18,  4.7D-17,  5.6D-01, r^2= 2.6D+00
   Bfn.  Coefficient  Atom+Function         Bfn.  Coefficient  Atom+Function  
  ----- ------------  ---------------      ----- ------------  ---------------
     6      1.184723  2 H  s                  5     -0.979456  1 Li pz         
     2     -0.702684  1 Li s          


 center of mass
 --------------
 x =   0.00000000 y =   0.00000000 z =  -0.37611878

 moments of inertia (a.u.)
 ------------------
           8.056212187425           0.000000000000           0.000000000000
           0.000000000000           8.056212187425           0.000000000000
           0.000000000000           0.000000000000           0.000000000000

  Mulliken analysis of the total density
  --------------------------------------

    Atom       Charge   Shell Charges
 -----------   ------   -------------------------------------------------------
    1 Li   3     3.02   1.99  0.59  0.43
    2 H    1     0.98   0.98

       Multipole analysis of the density wrt the origin
       ------------------------------------------------

     L   x y z        total         open         nuclear
     -   - - -        -----         ----         -------
     0   0 0 0     -0.000000      0.000000      4.000000

     1   1 0 0     -0.000000      0.000000      0.000000
     1   0 1 0      0.000000      0.000000      0.000000
     1   0 0 1     -1.911580      0.000000      0.000000

     2   2 0 0     -3.926095      0.000000      0.000000
     2   1 1 0      0.000000      0.000000      0.000000
     2   1 0 1     -0.000000      0.000000      0.000000
     2   0 2 0     -3.926095      0.000000      0.000000
     2   0 1 1      0.000000      0.000000      0.000000
     2   0 0 2     -3.677557      0.000000      6.856443


 Parallel integral file used       1 records with       0 large values

 ------------------------------------
     Number of active orbitals      6
     Number of active alpha electrons      2
     Number of active beta electrons       2
 ------------------------------------
                   NWChem Extensible Many-Electron Theory Module
                   ---------------------------------------------

              ======================================================
                   This portion of the program was automatically
                  generated by a Tensor Contraction Engine (TCE).
                  The development of this portion of the program
                 and TCE was supported by US Department of Energy,
                Office of Science, Office of Basic Energy Science.
                      TCE is a product of Battelle and PNNL.
              Please cite: S.Hirata, J.Phys.Chem.A 107, 9887 (2003).
              ======================================================

            General Information
            -------------------
      Number of processors :     1
         Wavefunction type : Restricted Hartree-Fock
          No. of electrons :     4
           Alpha electrons :     2
            Beta electrons :     2
           No. of orbitals :    12
            Alpha orbitals :     6
             Beta orbitals :     6
        Alpha frozen cores :     0
         Beta frozen cores :     0
     Alpha frozen virtuals :     0
      Beta frozen virtuals :     0
         Spin multiplicity : singlet 
    Number of AO functions :     6
       Number of AO shells :     4
        Use of symmetry is : off
      Symmetry adaption is : off
         Schwarz screening : 0.10D-09

          Correlation Information
          -----------------------
          Calculation type : Coupled-cluster singles & doubles                           
   Perturbative correction : none                                                        
            Max iterations :      100
        Residual threshold : 0.10D-06
     T(0) DIIS level shift : 0.00D+00
     L(0) DIIS level shift : 0.00D+00
     T(1) DIIS level shift : 0.00D+00
     L(1) DIIS level shift : 0.00D+00
     T(R) DIIS level shift : 0.00D+00
     T(I) DIIS level shift : 0.00D+00
   CC-T/L Amplitude update :  5-th order DIIS
     No. of excited states :     2
               Target root :     1
           Target symmetry : none
      Symmetry restriction : off
   Dipole & oscillator str : off
                I/O scheme : Global Array Library
        L-threshold :  0.10D-06
        EOM-threshold :  0.10D-06
 no EOMCCSD initial starts read in
 TCE RESTART OPTIONS
 READ_INT:   F
 WRITE_INT:  F
 READ_TA:    F
 WRITE_TA:   F
 READ_XA:    F
 WRITE_XA:   F
 READ_IN3:   F
 WRITE_IN3:  F
 SLICE:      F
 D4D5:       F
 quantumc:   T
 qrotation:  F
 pwtce:      F
 qducc:      F
 nacto:                         0
 nrotv:                         0
 nrot:                          0

            Memory Information
            ------------------
          Available GA space size is      26214364 doubles
          Available MA space size is      26213732 doubles

 Maximum block size supplied by input
 Maximum block size         1 doubles

 tile_dim =      1

 Block   Spin    Irrep     Size     Offset   Alpha
 -------------------------------------------------
   1    alpha     a      1 doubles       0       1
   2    alpha     a      1 doubles       1       2
   3    beta      a      1 doubles       2       1
   4    beta      a      1 doubles       3       2
   5    alpha     a      1 doubles       4       5
   6    alpha     a      1 doubles       5       6
   7    alpha     a      1 doubles       6       7
   8    alpha     a      1 doubles       7       8
   9    beta      a      1 doubles       8       5
  10    beta      a      1 doubles       9       6
  11    beta      a      1 doubles      10       7
  12    beta      a      1 doubles      11       8

 Global array virtual files algorithm will be used

 Parallel file system coherency ......... OK

 #quartets = 5.500D+01 #integrals = 9.700D+01 #direct =  0.0% #cached =100.0%


 Integral file          = ./Lih.aoints.0
 Record size in doubles =    65536    No. of integs per rec  =    43688
 Max. records in memory =        3    Max. records in file   =  1004381
 No. of bits per label  =        8    No. of bits per value  =       64


 Fock matrix recomputed
 1-e file size   =               36
 1-e file name   = ./Lih.f1
 Cpu & wall time / sec            0.0            0.0
 4-electron integrals stored in orbital form

 v2    file size   =              231
 4-index algorithm nr.  13 is used
 imaxsize =       30
 imaxsize ichop =        0
 begin_one_electron_integrals
    1    1        -4.7273931513
    2    1         0.1054996705
    3    1         0.1669614175
    6    1        -0.0346771966
    1    2         0.1054996705
    2    2        -1.4926462703
    3    2         0.0328928026
    6    2        -0.0527079159
    1    3         0.1669614175
    2    3         0.0328928026
    3    3        -1.1255447398
    6    3         0.0304455736
    4    4        -1.1357998609
    5    5        -1.1357998609
    1    6        -0.0346771966
    2    6        -0.0527079159
    3    6         0.0304455736
    6    6        -0.9509665739
 end_one_electron_integrals
 begin_two_electron_integrals
    1    1    1    1        1.6585666863
    2    1    1    1       -0.1117099738
    2    1    2    1        0.0133375783
    3    1    1    1       -0.1385746351
    3    1    2    1        0.0112157743
    3    1    3    1        0.0216622465
    3    1    2    2       -0.0158680861
    4    1    4    1        0.0098178828
    5    1    5    1        0.0098178828
    6    1    1    1        0.0530450148
    6    1    2    1       -0.0089066739
    6    1    3    1       -0.0023559095
    6    1    6    1        0.0085495067
    6    1    2    2       -0.0068375751
    6    1    3    2        0.0016892845
    6    1    3    3        0.0104435297
    6    1    4    4        0.0005910784
    6    1    5    5        0.0005910784
    2    2    1    1        0.3667010531
    2    2    2    1        0.0062103033
    2    2    2    2        0.4873109857
    3    2    1    1        0.0134512708
    3    2    2    1       -0.0033493899
    3    2    3    1        0.0001762760
    3    2    2    2       -0.0485795701
    3    2    3    2        0.0130639729
    4    2    4    1        0.0074884644
    4    2    4    2        0.0234226717
    5    2    5    1        0.0074884644
    5    2    5    2        0.0234226717
    6    2    1    1       -0.0414968774
    6    2    2    1        0.0046926680
    6    2    3    1        0.0005596475
    6    2    6    1        0.0001191473
    6    2    2    2        0.1267949967
    6    2    3    2       -0.0346006164
    6    2    6    2        0.1239264569
    6    2    3    3       -0.0124160209
    6    2    4    4       -0.0162922289
    6    2    5    5       -0.0162922289
    3    3    1    1        0.3956337224
    3    3    2    1       -0.0110350621
    3    3    3    1        0.0018246206
    3    3    2    2        0.2236100383
    3    3    3    2        0.0074841640
    3    3    3    3        0.3378822774
    4    3    4    1        0.0102577039
    4    3    4    2        0.0192768911
    4    3    4    3        0.0412766980
    5    3    5    1        0.0102577039
    5    3    5    2        0.0192768911
    5    3    5    3        0.0412766980
    6    3    1    1        0.0176658324
    6    3    2    1       -0.0036667906
    6    3    3    1        0.0043956317
    6    3    6    1        0.0043058584
    6    3    2    2       -0.0513668822
    6    3    3    2        0.0094085988
    6    3    6    2       -0.0319036263
    6    3    3    3        0.0359796477
    6    3    6    3        0.0264481819
    6    3    4    4        0.0022381033
    6    3    5    5        0.0022381033
    4    4    1    1        0.3963193838
    4    4    2    1       -0.0043558032
    4    4    3    1       -0.0049752926
    4    4    2    2        0.2701714974
    4    4    3    2        0.0057674998
    4    4    3    3        0.2819913460
    4    4    4    4        0.3129455112
    5    4    5    4        0.0168691395
    6    4    4    1       -0.0061123266
    6    4    4    2       -0.0195744730
    6    4    4    3       -0.0137229682
    6    4    6    4        0.0197222560
    5    5    1    1        0.3963193838
    5    5    2    1       -0.0043558032
    5    5    3    1       -0.0049752926
    5    5    2    2        0.2701714974
    5    5    3    2        0.0057674998
    5    5    3    3        0.2819913460
    5    5    4    4        0.2792072321
    5    5    5    5        0.3129455112
    6    5    5    1       -0.0061123266
    6    5    5    2       -0.0195744730
    6    5    5    3       -0.0137229682
    6    5    6    5        0.0197222560
    6    6    1    1        0.3617310512
    6    6    2    1        0.0032715966
    6    6    3    1       -0.0113363371
    6    6    6    1       -0.0030683864
    6    6    2    2        0.4538444398
    6    6    3    2       -0.0433534395
    6    6    6    2        0.1342054254
    6    6    3    3        0.2414356443
    6    6    6    3       -0.0440769162
    6    6    4    4        0.2681284190
    6    6    5    5        0.2681284190
    6    6    6    6        0.4537872215
 end_two_electron_integrals
 enrep_tce =   0.99220734187443449     
  EHF(A)             =        -7.86186477
  EHF(total)         =        -7.86186477
  Shift (HFtot-HFA)  =         0.00000000
 Cpu & wall time / sec            0.0            0.0
 T1-number-of-tasks                    8

 t1 file size   =                8
 t1 file name   = ./Lih.t1
 t1 file handle =       -998
 T2-number-of-boxes                   94

 t2 file size   =               94
 t2 file name   = ./Lih.t2
 t2 file handle =       -996
CCSD iterations
 ---------------------------------------------------------
 Iter          Residuum       Correlation     Cpu    Wall 
 ---------------------------------------------------------
NEW TASK SCHEDULING
CCSD_T1_NTS --- OK
CCSD_T2_NTS --- OK
    1   0.0515307038270  -0.0129032772059     1.0     0.5
    2   0.0199777594188  -0.0174266114640     1.1     0.6
    3   0.0085835772498  -0.0191188879489     1.0     0.5
    4   0.0043559084398  -0.0197968951631     1.1     0.5
    5   0.0026237544179  -0.0200928882120     1.0     0.5
 MICROCYCLE DIIS UPDATE:                    5                    5
    6   0.0001227650989  -0.0204435420836     1.0     0.5
    7   0.0000510059384  -0.0204441388869     1.0     0.5
    8   0.0000411108881  -0.0204452468182     1.1     0.5
    9   0.0000309222212  -0.0204461711753     1.0     0.5
   10   0.0000225706240  -0.0204469044633     1.0     0.5
 MICROCYCLE DIIS UPDATE:                   10                    5
   11   0.0000016038090  -0.0204488439808     1.3     0.8
   12   0.0000005179660  -0.0204489708078     1.0     0.5
   13   0.0000001990666  -0.0204490170620     1.0     0.5
   14   0.0000000915385  -0.0204490341523     1.0     0.5
 -----------------------------------------------------------------
 Iterations converged
 CCSD correlation energy / hartree =        -0.020449034152301
 CCSD total energy / hartree       =        -7.882313807717264

 Singles contributions

 Doubles contributions
     6a   (alpha)     6a   (beta ) ---     2a   (alpha)     2a   (beta )       -0.1154632372
 Ground state specification:
 exp(T)|Ref>~(1+T)|Ref>
 ------- a(p)+/a(q) strings ----------

 singles norm

 doubles norm

 Reference string
  0.99340003941045063      :(1a)+ (2a)+ (1b)+ (2b)+ |0>

 Singles strings

 Doubles strings
 -0.11470118438497075      :(6a)+ (6b)+ (2b)  (2a)  (1a)+ (2a)+ (1b)+ (2b)+ |0>
 -------------------------------------

 Ground-state symmetry is a   

 =========================================
 Excited-state calculation ( a   symmetry)
 =========================================
 Dim. of EOMCC iter. space      500

 x1 file size   =                8

 x2 file size   =               94

 EOMCCSD SOLVER TYPE  1
  maxdiff =   0.45021210383650839     

 No. of initial right vectors    3

 EOM-CCSD right-hand side iterations
 --------------------------------------------------------------
      Residuum       Omega / hartree  Omega / eV    Cpu    Wall
 --------------------------------------------------------------

 Iteration   1 using    3 trial vectors
EOMCCSD_X1_NTS --- OK
EOMCCSD_X2_NTS --- OK
   0.2497213854965   0.1902194575047    5.17614
   0.2625356649693   0.2484635931438    6.76104     5.4     2.8

 Iteration   2 using    5 trial vectors
   0.0786715821347   0.1385885762800    3.77119
   0.0450740146135   0.1865196270937    5.07546     3.1     1.6

 Iteration   3 using    7 trial vectors
   0.0153525959455   0.1329488276512    3.61772
   0.0097363459600   0.1852788795218    5.04170     3.2     1.7

 Iteration   4 using    9 trial vectors
   0.0052431364051   0.1329727306563    3.61837
   0.0019505455471   0.1852030511335    5.03963     3.2     1.7

 Iteration   5 using   11 trial vectors
   0.0007164990508   0.1329768934998    3.61849
   0.0000361628481   0.1851901346428    5.03928     3.2     1.7

 Iteration   6 using   13 trial vectors
   0.0001077838767   0.1329693994212    3.61828
   0.0000022679112   0.1851901567894    5.03928     3.2     1.7

 Iteration   7 using   15 trial vectors
   0.0000240340582   0.1329695111422    3.61829
   0.0000002634314   0.1851901559040    5.03928     3.1     1.7

 Iteration   8 using   17 trial vectors
   0.0000017572563   0.1329696179499    3.61829
   0.0000000101704   0.1851901555112    5.03928     3.2     1.7

 Iteration   9 using   18 trial vectors
   0.0000004399231   0.1329696528887    3.61829
   0.0000000101704   0.1851901555112    5.03928     1.6     0.9

 Iteration  10 using   19 trial vectors
   0.0000000388119   0.1329696546351    3.61829
   0.0000000101704   0.1851901555112    5.03928     1.6     0.9
 --------------------------------------------------------------
 Iterations converged
 ------------------

 Excited state root  1
 Excitation energy / hartree =        0.132969654635083
                   / eV      =        3.618289941555453
 largest EOMCCSD amplitudes: R1 and R2

 Singles contributions
     3a   (alpha) ---     2a   (alpha)        0.8888032744

 Doubles contributions
     3a   (alpha)     3a   (beta ) ---     2a   (alpha)     2a   (beta )       -0.3243229835
     3a   (alpha)     6a   (beta ) ---     2a   (alpha)     2a   (beta )        0.2207549393
     6a   (alpha)     3a   (beta ) ---     2a   (alpha)     2a   (beta )        0.2207549393
 Excited state specification:
 Rexp(T)|Ref>~(R_1+R_2)|Ref>
 ------- a(p)+/a(q) strings ----------

 singles norm

 doubles norm

 Singles strings
  0.66570144270658183      :(3a)+ (2a)  (1a)+ (2a)+ (1b)+ (2b)+ |0>
  0.66570144270658183      :(3b)+ (2b)  (1a)+ (2a)+ (1b)+ (2b)+ |0>

 Doubles strings
 -0.24291345927813784      :(3a)+ (3b)+ (2b)  (2a)  (1a)+ (2a)+ (1b)+ (2b)+ |0>
  0.16534241690848675      :(3a)+ (6b)+ (2b)  (2a)  (1a)+ (2a)+ (1b)+ (2b)+ |0>
  0.16534241690848672      :(6a)+ (3b)+ (2b)  (2a)  (1a)+ (2a)+ (1b)+ (2b)+ |0>
 -------------------------------------
 ------------------

 Excited state root  2
 Excitation energy / hartree =        0.185190155511208
                   / eV      =        5.039282675436085
 largest EOMCCSD amplitudes: R1 and R2

 Singles contributions
     4a   (alpha) ---     2a   (alpha)       -0.6608891789
     5a   (alpha) ---     2a   (alpha)       -0.5975329113

 Doubles contributions
     3a   (alpha)     4a   (beta ) ---     2a   (alpha)     2a   (beta )        0.1429130132
     3a   (alpha)     5a   (beta ) ---     2a   (alpha)     2a   (beta )        0.1292126298
     4a   (alpha)     3a   (beta ) ---     2a   (alpha)     2a   (beta )        0.1429130132
     4a   (alpha)     6a   (beta ) ---     2a   (alpha)     2a   (beta )       -0.1903823506
     5a   (alpha)     3a   (beta ) ---     2a   (alpha)     2a   (beta )        0.1292126298
     5a   (alpha)     6a   (beta ) ---     2a   (alpha)     2a   (beta )       -0.1721313102
     6a   (alpha)     4a   (beta ) ---     2a   (alpha)     2a   (beta )       -0.1903823506
     6a   (alpha)     5a   (beta ) ---     2a   (alpha)     2a   (beta )       -0.1721313102
 Excited state specification:
 Rexp(T)|Ref>~(R_1+R_2)|Ref>
 ------- a(p)+/a(q) strings ----------

 singles norm

 doubles norm

 Singles strings
 -0.49347172392878313      :(4a)+ (2a)  (1a)+ (2a)+ (1b)+ (2b)+ |0>
 -0.49347172392878313      :(4b)+ (2b)  (1a)+ (2a)+ (1b)+ (2b)+ |0>
 -0.44616496274197603      :(5a)+ (2a)  (1a)+ (2a)+ (1b)+ (2b)+ |0>
 -0.44616496274197603      :(5b)+ (2b)  (1a)+ (2a)+ (1b)+ (2b)+ |0>

 Doubles strings
  0.10671007067088031      :(3a)+ (4b)+ (2b)  (2a)  (1a)+ (2a)+ (1b)+ (2b)+ |0>
   9.6480289338600173E-002 :(3a)+ (5b)+ (2b)  (2a)  (1a)+ (2a)+ (1b)+ (2b)+ |0>
  0.10671007067088031      :(4a)+ (3b)+ (2b)  (2a)  (1a)+ (2a)+ (1b)+ (2b)+ |0>
 -0.14215440316024727      :(4a)+ (6b)+ (2b)  (2a)  (1a)+ (2a)+ (1b)+ (2b)+ |0>
   9.6480289338600131E-002 :(5a)+ (3b)+ (2b)  (2a)  (1a)+ (2a)+ (1b)+ (2b)+ |0>
 -0.12852674411543910      :(5a)+ (6b)+ (2b)  (2a)  (1a)+ (2a)+ (1b)+ (2b)+ |0>
 -0.14215440316024722      :(6a)+ (4b)+ (2b)  (2a)  (1a)+ (2a)+ (1b)+ (2b)+ |0>
 -0.12852674411543910      :(6a)+ (5b)+ (2b)  (2a)  (1a)+ (2a)+ (1b)+ (2b)+ |0>
 -------------------------------------

 Parallel integral file used       1 records with       0 large values


 Task  times  cpu:       45.8s     wall:       24.3s


                                NWChem Input Module
                                -------------------


 Summary of allocated global arrays
-----------------------------------
  No active global arrays



                         GA Statistics for process    0
                         ------------------------------

       create   destroy   get      put      acc     scatter   gather  read&inc
calls: 3283     3283     2.04e+06 5988     1.77e+05    0        0     2.74e+05 
number of processes/call -3.98e+12 -9.48e+14 2.68e+11 0.00e+00 0.00e+00
bytes total:             1.73e+07 2.19e+05 1.60e+06 0.00e+00 0.00e+00 2.19e+06
bytes remote:            0.00e+00 0.00e+00 0.00e+00 0.00e+00 0.00e+00 0.00e+00
Max memory consumed for GA by this process: 52352 bytes

MA_summarize_allocated_blocks: starting scan ...
MA_summarize_allocated_blocks: scan completed: 0 heap blocks, 0 stack blocks
MA usage statistics:

	allocation statistics:
					      heap	     stack
					      ----	     -----
	current number of blocks	         0	         0
	maximum number of blocks	        17	        61
	current total bytes		         0	         0
	maximum total bytes		   1577728	  22509144
	maximum total K-bytes		      1578	     22510
	maximum total M-bytes		         2	        23


                                     CITATION
                                     --------
                Please cite the following reference when publishing
                           results obtained with NWChem:

          E. Aprà, E. J. Bylaska, W. A. de Jong, N. Govind, K. Kowalski,
       T. P. Straatsma, M. Valiev, H. J. J. van Dam, Y. Alexeev, J. Anchell,
       V. Anisimov, F. W. Aquino, R. Atta-Fynn, J. Autschbach, N. P. Bauman,
     J. C. Becca, D. E. Bernholdt, K. Bhaskaran-Nair, S. Bogatko, P. Borowski,
        J. Boschen, J. Brabec, A. Bruner, E. Cauët, Y. Chen, G. N. Chuev,
      C. J. Cramer, J. Daily, M. J. O. Deegan, T. H. Dunning Jr., M. Dupuis,
   K. G. Dyall, G. I. Fann, S. A. Fischer, A. Fonari, H. Früchtl, L. Gagliardi,
      J. Garza, N. Gawande, S. Ghosh, K. Glaesemann, A. W. Götz, J. Hammond,
       V. Helms, E. D. Hermes, K. Hirao, S. Hirata, M. Jacquelin, L. Jensen,
   B. G. Johnson, H. Jónsson, R. A. Kendall, M. Klemm, R. Kobayashi, V. Konkov,
      S. Krishnamoorthy, M. Krishnan, Z. Lin, R. D. Lins, R. J. Littlefield,
      A. J. Logsdail, K. Lopata, W. Ma, A. V. Marenich, J. Martin del Campo,
   D. Mejia-Rodriguez, J. E. Moore, J. M. Mullin, T. Nakajima, D. R. Nascimento,
    J. A. Nichols, P. J. Nichols, J. Nieplocha, A. Otero-de-la-Roza, B. Palmer,
    A. Panyala, T. Pirojsirikul, B. Peng, R. Peverati, J. Pittner, L. Pollack,
   R. M. Richard, P. Sadayappan, G. C. Schatz, W. A. Shelton, D. W. Silverstein,
   D. M. A. Smith, T. A. Soares, D. Song, M. Swart, H. L. Taylor, G. S. Thomas,
            V. Tipparaju, D. G. Truhlar, K. Tsemekhman, T. Van Voorhis,
     Á. Vázquez-Mayagoitia, P. Verma, O. Villa, A. Vishnu, K. D. Vogiatzis,
        D. Wang, J. H. Weare, M. J. Williamson, T. L. Windus, K. Woliński,
        A. T. Wong, Q. Wu, C. Yang, Q. Yu, M. Zacharias, Z. Zhang, Y. Zhao,
                                and R. J. Harrison
                        "NWChem: Past, present, and future
                         J. Chem. Phys. 152, 184102 (2020)
                               doi:10.1063/5.0004997

                                      AUTHORS
                                      -------
     E. Apra, E. J. Bylaska, N. Govind, K. Kowalski, M. Valiev, W. A. de Jong,
      T. P. Straatsma, H. J. J. van Dam, D. Wang, T. L. Windus, N. P. Bauman,
       A. Panyala, J. Hammond, J. Autschbach, K. Bhaskaran-Nair, J. Brabec,
    K. Lopata, S. A. Fischer, S. Krishnamoorthy, M. Jacquelin, W. Ma, M. Klemm,
       O. Villa, Y. Chen, V. Anisimov, F. Aquino, S. Hirata, M. T. Hackler,
           Eric Hermes, L. Jensen, J. E. Moore, J. C. Becca, V. Konjkov,
            D. Mejia-Rodriguez, T. Risthaus, M. Malagoli, A. Marenich,
   A. Otero-de-la-Roza, J. Mullin, P. Nichols, R. Peverati, J. Pittner, Y. Zhao,
        P.-D. Fan, A. Fonari, M. J. Williamson, R. J. Harrison, J. R. Rehr,
      M. Dupuis, D. Silverstein, D. M. A. Smith, J. Nieplocha, V. Tipparaju,
      M. Krishnan, B. E. Van Kuiken, A. Vazquez-Mayagoitia, M. Swart, Q. Wu,
   T. Van Voorhis, A. A. Auer, M. Nooijen, L. D. Crosby, E. Brown, G. Cisneros,
     G. I. Fann, H. Fruchtl, J. Garza, K. Hirao, R. A. Kendall, J. A. Nichols,
       K. Tsemekhman, K. Wolinski, J. Anchell, D. E. Bernholdt, P. Borowski,
       T. Clark, D. Clerc, H. Dachsel, M. J. O. Deegan, K. Dyall, D. Elwood,
      E. Glendening, M. Gutowski, A. C. Hess, J. Jaffe, B. G. Johnson, J. Ju,
        R. Kobayashi, R. Kutteh, Z. Lin, R. Littlefield, X. Long, B. Meng,
      T. Nakajima, S. Niu, L. Pollack, M. Rosing, K. Glaesemann, G. Sandrone,
      M. Stave, H. Taylor, G. Thomas, J. H. van Lenthe, A. T. Wong, Z. Zhang.

 Total times  cpu:       45.8s     wall:       24.4s
